  -1.4999999999999999E-002     0.0000000000000000     
  -1.4700000000000000E-002     0.0000000000000000     
  -1.4400000000000000E-002     0.0000000000000000     
  -1.4100000000000000E-002     0.0000000000000000     
  -1.3800000000000000E-002     0.0000000000000000     
  -1.3500000000000000E-002     0.0000000000000000     
  -1.3200000000000000E-002     0.0000000000000000     
  -1.2899999999999998E-002     0.0000000000000000     
  -1.2600000000000000E-002     0.0000000000000000     
  -1.2299999999999998E-002     0.0000000000000000     
  -1.2000000000000000E-002     0.0000000000000000     
  -1.1699999999999999E-002     0.0000000000000000     
  -1.1399999999999999E-002     0.0000000000000000     
  -1.1099999999999999E-002     0.0000000000000000     
  -1.0799999999999999E-002     0.0000000000000000     
  -1.0499999999999999E-002     0.0000000000000000     
  -1.0199999999999999E-002     0.0000000000000000     
  -9.8999999999999991E-003     0.0000000000000000     
  -9.5999999999999992E-003     0.0000000000000000     
  -9.2999999999999992E-003     0.0000000000000000     
  -8.9999999999999993E-003     0.0000000000000000     
  -8.6999999999999994E-003     0.0000000000000000     
  -8.3999999999999995E-003     0.0000000000000000     
  -8.0999999999999996E-003     0.0000000000000000     
  -7.7999999999999988E-003     0.0000000000000000     
  -7.4999999999999997E-003     0.0000000000000000     
  -7.1999999999999998E-003     0.0000000000000000     
  -6.8999999999999981E-003     0.0000000000000000     
  -6.5999999999999982E-003     0.0000000000000000     
  -6.3000000000000000E-003     0.0000000000000000     
  -6.0000000000000001E-003     0.0000000000000000     
  -5.6999999999999985E-003     0.0000000000000000     
  -5.3999999999999986E-003     0.0000000000000000     
  -5.1000000000000004E-003     0.0000000000000000     
  -4.7999999999999987E-003     0.0000000000000000     
  -4.5000000000000005E-003     0.0000000000000000     
  -4.1999999999999989E-003     0.0000000000000000     
  -3.8999999999999990E-003     0.0000000000000000     
  -3.5999999999999990E-003     0.0000000000000000     
  -3.2999999999999991E-003     0.0000000000000000     
  -2.9999999999999992E-003     0.0000000000000000     
  -2.6999999999999993E-003     0.0000000000000000     
  -2.3999999999999994E-003     0.0000000000000000     
  -2.0999999999999977E-003     0.0000000000000000     
  -1.7999999999999995E-003     0.0000000000000000     
  -1.4999999999999979E-003     0.0000000000000000     
  -1.1999999999999997E-003     0.0000000000000000     
  -8.9999999999999976E-004     0.0000000000000000     
  -5.9999999999999810E-004     0.0000000000000000     
  -2.9999999999999992E-004     0.0000000000000000     
   0.0000000000000000          0.0000000000000000     
   3.0000000000000165E-004     0.0000000000000000     
   5.9999999999999984E-004     0.0000000000000000     
   9.0000000000000149E-004     0.0000000000000000     
   1.2000000000000031E-003     0.0000000000000000     
   1.5000000000000013E-003     0.0000000000000000     
   1.8000000000000030E-003     0.0000000000000000     
   2.1000000000000012E-003     4.1442175946250181E-039
   2.3999999999999994E-003    -4.4871790879254276E-038
   2.7000000000000010E-003     2.3256844393328752E-038
   2.9999999999999992E-003    -5.0011086868297520E-038
   3.3000000000000008E-003    -1.1417214548961307E-036
   3.6000000000000025E-003     1.1264945318602829E-035
   3.9000000000000007E-003    -8.1956139931178178E-037
   4.2000000000000023E-003    -8.2846992350652449E-035
   4.5000000000000005E-003     4.2737286161557209E-034
   4.7999999999999987E-003    -5.3425113001150470E-033
   5.1000000000000004E-003     3.0811134020972076E-032
   5.4000000000000020E-003     6.2030893025489424E-033
   5.7000000000000037E-003    -1.4638918133038222E-030
   5.9999999999999984E-003     1.1932137504546319E-029
   6.3000000000000000E-003    -4.1874352114831087E-029
   6.6000000000000017E-003    -6.4090711761381562E-029
   6.9000000000000034E-003     1.6269400610943930E-027
   7.2000000000000015E-003    -9.2419196861396373E-027
   7.5000000000000032E-003     2.2187858311972733E-026
   7.8000000000000014E-003     4.7563149685036180E-026
   8.0999999999999996E-003    -6.3652314511717558E-025
   8.4000000000000012E-003     2.5962529224525400E-024
   8.7000000000000029E-003    -4.4419574682603168E-024
   9.0000000000000011E-003    -8.6569691262821188E-024
   9.2999999999999992E-003     7.7103150110669794E-023
   9.6000000000000009E-003    -2.0393913974018275E-022
   9.8999999999999991E-003     2.5038256960595443E-024
   1.0200000000000001E-002     2.1169783886901615E-021
   1.0500000000000002E-002    -9.3267764495524886E-021
   1.0800000000000004E-002     2.2123925853824229E-020
   1.1099999999999999E-002    -1.9831257418322998E-020
   1.1400000000000000E-002    -8.6588591582271591E-020
   1.1700000000000002E-002     5.6012275574327397E-019
   1.2000000000000004E-002    -2.1778976280955961E-018
   1.2300000000000002E-002     7.8509621082556618E-018
   1.2600000000000000E-002    -3.0225246662915947E-017
   1.2900000000000002E-002     1.2125514189086943E-016
   1.3200000000000000E-002    -4.5756676702213040E-016
   1.3500000000000002E-002     1.4376741142881804E-015
   1.3800000000000003E-002    -2.8030536255991712E-015
   1.4100000000000001E-002    -4.8839638432573454E-015
   1.4400000000000000E-002     8.7377686882352411E-014
   1.4700000000000001E-002    -5.5532340941739720E-013
   1.4999999999999999E-002     2.4877151605315119E-012
   1.5300000000000001E-002    -8.3587683914355374E-012
   1.5600000000000003E-002     1.9429262785282989E-011
   1.5899999999999997E-002    -1.7949072471620497E-011
   1.6199999999999999E-002    -7.8540142459534514E-011
   1.6500000000000001E-002     4.1945191916182958E-010
   1.6800000000000002E-002    -8.4789316882093997E-010
   1.7100000000000004E-002    -1.0357283936357811E-010
   1.7400000000000006E-002     4.8075594227566991E-009
   1.7700000000000000E-002    -8.7021497928436227E-009
   1.8000000000000002E-002    -8.8625484142261827E-009
   1.8300000000000004E-002     4.6977033125325246E-008
   1.8600000000000005E-002    -1.3143555224786929E-009
   1.8900000000000000E-002    -1.8366826014915667E-007
   1.9200000000000002E-002     2.0420666369781604E-009
   1.9500000000000003E-002     5.6973217861099818E-007
   1.9799999999999998E-002     1.9237140785203488E-007
   2.0100000000000000E-002    -1.4609262311189461E-006
   2.0400000000000001E-002    -1.1984780182034278E-006
   2.0700000000000003E-002     4.3818354846725997E-006
   2.0999999999999998E-002     1.3125407661176091E-005
   2.1299999999999999E-002     1.9766530388888788E-005
   2.1600000000000001E-002     2.5631231602136584E-005
   2.1900000000000003E-002     4.0316041231389056E-005
   2.2200000000000004E-002     7.0915598613912733E-005
   2.2500000000000006E-002     1.1592824768872799E-004
   2.2800000000000001E-002     1.7534676507363796E-004
   2.3100000000000002E-002     2.6245860887374149E-004
   2.3400000000000004E-002     3.9919056079919420E-004
   2.3699999999999999E-002     6.0355040439656268E-004
   2.4000000000000000E-002     8.9212374729207358E-004
   2.4300000000000002E-002     1.2957211311630731E-003
   2.4599999999999997E-002     1.8634366185243806E-003
   2.4900000000000005E-002     2.6505663528590406E-003
   2.5200000000000000E-002     3.7136509687029501E-003
   2.5499999999999995E-002     5.1224981208058407E-003
   2.5800000000000003E-002     6.9677308076249445E-003
   2.6099999999999998E-002     9.3487460760648955E-003
   2.6400000000000007E-002     1.2358500627187852E-002
   2.6700000000000002E-002     1.6083764515089416E-002
   2.6999999999999996E-002     2.0607920703507254E-002
   2.7300000000000005E-002     2.5993782258216802E-002
   2.7600000000000000E-002     3.2256023533999256E-002
   2.7900000000000008E-002     3.9343504453470235E-002
   2.8200000000000003E-002     4.7132737704205230E-002
   2.8499999999999998E-002     5.5413082983034379E-002
   2.8800000000000006E-002     6.3863070814009326E-002
   2.9100000000000001E-002     7.2036509519844305E-002
   2.9400000000000003E-002     7.9366658717777483E-002
   2.9700000000000004E-002     8.5185076058692299E-002
   3.0000000000000006E-002     8.8740723911174602E-002
   3.0300000000000001E-002     8.9234728412557640E-002
   3.0600000000000002E-002     8.5884359939767840E-002
   3.0900000000000004E-002     7.7982670582816827E-002
   3.1199999999999999E-002     6.4980263359863510E-002
   3.1500000000000007E-002     4.6553694532158296E-002
   3.1800000000000002E-002     2.2683483947243940E-002
   3.2099999999999997E-002    -6.2624641818274374E-003
   3.2400000000000005E-002    -3.9518743651621779E-002
   3.2700000000000000E-002    -7.5921004299132289E-002
   3.3000000000000002E-002   -0.11391957618278070     
   3.3300000000000003E-002   -0.15164838819253834     
   3.3599999999999998E-002   -0.18704422227260498     
   3.3900000000000000E-002   -0.21799566644052604     
   3.4200000000000001E-002   -0.24249401110067570     
   3.4500000000000003E-002   -0.25881443856856734     
   3.4799999999999998E-002   -0.26568821601224002     
   3.5099999999999999E-002   -0.26243209077310858     
   3.5400000000000001E-002   -0.24905008270155893     
   3.5699999999999996E-002   -0.22627353297951291     
   3.6000000000000004E-002   -0.19557981176484152     
   3.6299999999999999E-002   -0.15906534888000312     
   3.6600000000000008E-002   -0.11932981220155092     
   3.6900000000000002E-002    -7.9291331517147734E-002
   3.7199999999999997E-002    -4.1946198364585130E-002
   3.7500000000000006E-002    -1.0198133172875601E-002
   3.7800000000000000E-002     1.3414878115953099E-002
   3.8100000000000009E-002     2.6948304886722174E-002
   3.8400000000000004E-002     2.9177462006128252E-002
   3.8699999999999998E-002     1.9663971310796891E-002
   3.9000000000000007E-002    -1.1841209812710266E-003
   3.9300000000000002E-002    -3.2074650157551621E-002
   3.9600000000000003E-002    -7.0906731440911752E-002
   3.9900000000000005E-002   -0.11494497168444351     
   4.0200000000000000E-002   -0.16100331116405719     
   4.0500000000000001E-002   -0.20558628183151306     
   4.0800000000000003E-002   -0.24511643824041141     
   4.1100000000000005E-002   -0.27614283943321816     
   4.1399999999999999E-002   -0.29558736692530729     
   4.1700000000000008E-002   -0.30095673086378660     
   4.2000000000000003E-002   -0.29042214891444296     
   4.2299999999999997E-002   -0.26295193965987274     
   4.2600000000000006E-002   -0.21846183189299939     
   4.2900000000000001E-002   -0.15779643860584969     
   4.3200000000000002E-002    -8.2607963669009743E-002
   4.3500000000000004E-002     4.7172538417671050E-003
   4.3799999999999999E-002    0.10116839681631262     
   4.4100000000000000E-002    0.20327407488815474     
   4.4400000000000002E-002    0.30741245863565325     
   4.4700000000000004E-002    0.41002236593700836     
   4.4999999999999998E-002    0.50773416218356893     
   4.5300000000000000E-002    0.59755633542487274     
   4.5600000000000002E-002    0.67703288245854409     
   4.5899999999999996E-002    0.74429560922802196     
   4.6200000000000005E-002    0.79805434364820727     
   4.6500000000000000E-002    0.83753555974123728     
   4.6799999999999994E-002    0.86239483256828109     
   4.7100000000000003E-002    0.87258677710399013     
   4.7399999999999998E-002    0.86824091376483281     
   4.7700000000000006E-002    0.84950880382716676     
   4.8000000000000001E-002    0.81646423734023088     
   4.8300000000000010E-002    0.76916728524910027     
   4.8600000000000004E-002    0.70762432263544284     
   4.8899999999999999E-002    0.63183974054273051     
   4.9200000000000008E-002    0.54194988150805656     
   4.9500000000000002E-002    0.43843772103397782     
   4.9800000000000011E-002    0.32233589080130276     
   5.0100000000000006E-002    0.19532392680583888     
   5.0400000000000000E-002     5.9835069676067221E-002
   5.0700000000000009E-002    -8.0837990539277538E-002
   5.1000000000000004E-002   -0.22256625234559735     
   5.1299999999999998E-002   -0.36052798435043343     
   5.1600000000000007E-002   -0.48947162997943394     
   5.1900000000000002E-002   -0.60406667547477610     
   5.2200000000000010E-002   -0.69916027086496868     
   5.2500000000000005E-002   -0.77015930947002076     
   5.2800000000000000E-002   -0.81352361015832031     
   5.3099999999999994E-002   -0.82707929073471576     
   5.3400000000000003E-002   -0.81021971937061110     
   5.3699999999999998E-002   -0.76396495096108907     
   5.4000000000000006E-002   -0.69092442275274024     
   5.4300000000000001E-002   -0.59528604051845591     
   5.4599999999999996E-002   -0.48250521858151352     
   5.4900000000000004E-002   -0.35881294076824766     
   5.5199999999999999E-002   -0.23086141723346465     
   5.5499999999999994E-002   -0.10531832442656230     
   5.5800000000000002E-002     1.1583640036665649E-002
   5.6099999999999997E-002    0.11432828406435824     
   5.6400000000000006E-002    0.19849318713224129     
   5.6700000000000000E-002    0.26086873445706082     
   5.6999999999999995E-002    0.29945258296625532     
   5.7300000000000004E-002    0.31357686148353636     
   5.7599999999999998E-002    0.30373089120357122     
   5.7900000000000007E-002    0.27151880285545538     
   5.8200000000000002E-002    0.21949671100845958     
   5.8499999999999996E-002    0.15097127007863564     
   5.8800000000000005E-002     7.0053235358944033E-002
   5.9100000000000000E-002    -1.8728275734455985E-002
   5.9400000000000008E-002   -0.11057455520928805     
   5.9700000000000003E-002   -0.20037060217465275     
   6.0000000000000012E-002   -0.28315126360658383     
   6.0300000000000006E-002   -0.35436574944178822     
   6.0600000000000001E-002   -0.41007547277690826     
   6.0900000000000010E-002   -0.44731938649559311     
   6.1200000000000004E-002   -0.46439432279215787     
   6.1500000000000013E-002   -0.46114891858625384     
   6.1800000000000008E-002   -0.43913640229306239     
   6.2100000000000002E-002   -0.40151714320044718     
   6.2399999999999997E-002   -0.35302235984346630     
   6.2700000000000006E-002   -0.29969694748506193     
   6.3000000000000000E-002   -0.24831993198870794     
   6.3300000000000009E-002   -0.20592801519632875     
   6.3600000000000004E-002   -0.17906017653311057     
   6.3899999999999998E-002   -0.17301616105374595     
   6.4199999999999993E-002   -0.19143431750753059     
   6.4500000000000002E-002   -0.23561091361668485     
   6.4800000000000010E-002   -0.30412455728219712     
   6.5100000000000005E-002   -0.39279612989640889     
   6.5400000000000000E-002   -0.49469565684642625     
   6.5700000000000008E-002   -0.60078968611377093     
   6.5999999999999989E-002   -0.70045523348228400     
   6.6299999999999998E-002   -0.78205288547334106     
   6.6600000000000006E-002   -0.83419152595675072     
   6.6900000000000001E-002   -0.84653778062745388     
   6.7199999999999996E-002   -0.81064750474312675     
   6.7500000000000004E-002   -0.72096120814945230     
   6.7800000000000013E-002   -0.57532435138500659     
   6.8099999999999994E-002   -0.37545182499519714     
   6.8400000000000002E-002   -0.12695547055268808     
   6.8700000000000011E-002    0.16098744060315662     
   6.8999999999999992E-002    0.47564676177457166     
   6.9300000000000000E-002    0.80155096050958718     
   6.9600000000000009E-002     1.1216815545419578     
   6.9900000000000004E-002     1.4181071792423765     
   7.0199999999999999E-002     1.6731443346694164     
   7.0500000000000007E-002     1.8706055043550123     
   7.0800000000000016E-002     1.9966787957356118     
   7.1099999999999997E-002     2.0411041577363989     
   7.1400000000000005E-002     1.9977551838240899     
   7.1700000000000000E-002     1.8651034770758770     
   7.1999999999999995E-002     1.6467667174367691     
   7.2300000000000003E-002     1.3512359600221551     
   7.2600000000000012E-002    0.99162055749975053     
   7.2900000000000006E-002    0.58490058661681044     
   7.3200000000000001E-002    0.15078730847574651     
   7.3499999999999996E-002   -0.28905983966849735     
   7.3800000000000004E-002   -0.71249973456891880     
   7.4099999999999999E-002    -1.0986396994292065     
   7.4400000000000008E-002    -1.4286240668732546     
   7.4700000000000003E-002    -1.6869358042933555     
   7.5000000000000011E-002    -1.8623575675949979     
   7.5299999999999992E-002    -1.9483072252170288     
   7.5600000000000001E-002    -1.9431147483239428     
   7.5900000000000009E-002    -1.8496364147855147     
   7.6200000000000004E-002    -1.6748353698688661     
   7.6499999999999999E-002    -1.4291617885798189     
   7.6800000000000007E-002    -1.1253545750485685     
   7.7099999999999988E-002   -0.77763421468732652     
   7.7399999999999997E-002   -0.40085919344532162     
   7.7700000000000005E-002    -9.5144581177866172E-003
   7.8000000000000014E-002    0.38267399213273912     
   7.8299999999999995E-002    0.76304575186512835     
   7.8600000000000003E-002     1.1204341503558766     
   7.8900000000000012E-002     1.4451042778896976     
   7.9199999999999993E-002     1.7285678832585489     
   7.9500000000000001E-002     1.9634549156588292     
   7.9800000000000010E-002     2.1433157392753230     
   8.0100000000000018E-002     2.2626941049467604     
   8.0399999999999999E-002     2.3168904793836873     
   8.0700000000000008E-002     2.3018203012715901     
   8.1000000000000003E-002     2.2145796203596859     
   8.1299999999999997E-002     2.0536116537294404     
   8.1600000000000006E-002     1.8188567485735234     
   8.1900000000000014E-002     1.5121216628545042     
   8.2199999999999995E-002     1.1373894472435246     
   8.2500000000000004E-002    0.70148400867797633     
   8.2799999999999999E-002    0.21415842384462458     
   8.3100000000000007E-002   -0.31198848406738033     
   8.3400000000000002E-002   -0.86122386621971714     
   8.3700000000000011E-002    -1.4150528330010914     
   8.4000000000000005E-002    -1.9525491896186935     
   8.4300000000000000E-002    -2.4509861849750365     
   8.4599999999999995E-002    -2.8871042669719316     
   8.4900000000000003E-002    -3.2377522053828898     
   8.5199999999999998E-002    -3.4811891539639532     
   8.5500000000000007E-002    -3.5987970161279321     
   8.5800000000000001E-002    -3.5762947830065599     
   8.6100000000000010E-002    -3.4048256375044588     
   8.6399999999999991E-002    -3.0819533959216301     
   8.6699999999999999E-002    -2.6126757651213524     
   8.7000000000000008E-002    -2.0098561031200113     
   8.7300000000000003E-002    -1.2937515147744394     
   8.7599999999999997E-002   -0.49151314462591955     
   8.7900000000000006E-002    0.36351941136409671     
   8.8200000000000014E-002     1.2336424549493898     
   8.8499999999999995E-002     2.0785968177685490     
   8.8800000000000004E-002     2.8576297517868454     
   8.9100000000000013E-002     3.5318093342491039     
   8.9399999999999993E-002     4.0662505397527440     
   8.9700000000000002E-002     4.4321423326940419     
   9.0000000000000011E-002     4.6087673242970482     
   9.0299999999999991E-002     4.5847553627213244     
   9.0600000000000000E-002     4.3588819367556653     
   9.0900000000000009E-002     3.9402119650194152     
   9.1200000000000017E-002     3.3478018275702937     
   9.1499999999999998E-002     2.6098175578652132     
   9.1800000000000007E-002     1.7617118168080532     
   9.2100000000000001E-002    0.84410183237534397     
   9.2399999999999996E-002    -9.9407202398963612E-002
   9.2700000000000005E-002    -1.0246788892382597     
   9.3000000000000013E-002    -1.8897104837807888     
   9.3300000000000008E-002    -2.6568159390095758     
   9.3600000000000003E-002    -3.2947324401386879     
   9.3899999999999997E-002    -3.7798547662985982     
   9.4200000000000006E-002    -4.0969632861708760     
   9.4500000000000001E-002    -4.2400854372138781     
   9.4800000000000009E-002    -4.2121055238993392     
   9.5100000000000004E-002    -4.0237572869827289     
   9.5399999999999999E-002    -3.6925058481881763     
   9.5699999999999993E-002    -3.2410190998288755     
   9.6000000000000002E-002    -2.6958667688454341     
   9.6300000000000011E-002    -2.0856580766875652     
   9.6600000000000005E-002    -1.4389743397536208     
   9.6900000000000000E-002   -0.78344039452658976     
   9.7200000000000009E-002   -0.14445309641079263     
   9.7499999999999989E-002    0.45597046852662793     
   9.7799999999999998E-002    0.99959861549121598     
   9.8100000000000007E-002     1.4723412954493327     
   9.8400000000000015E-002     1.8639654441465154     
   9.8699999999999996E-002     2.1680865895556423     
   9.9000000000000005E-002     2.3821405272307175     
   9.9300000000000013E-002     2.5062512077957848     
   9.9599999999999994E-002     2.5429097770859670     
   9.9900000000000003E-002     2.4968630955110029     
  0.10020000000000001          2.3743699867476096     
  0.10049999999999999          2.1831995284572088     
  0.10080000000000000          1.9321537169498555     
  0.10110000000000001          1.6308134570490438     
  0.10140000000000000          1.2901364313300441     
  0.10170000000000000         0.92201178361628777     
  0.10200000000000001         0.53893861110951402     
  0.10230000000000002         0.15386264920934600     
  0.10260000000000000        -0.21990873196199878     
  0.10290000000000001        -0.56905315700942083     
  0.10320000000000000        -0.88114745976754705     
  0.10350000000000001         -1.1454690626581865     
  0.10380000000000000         -1.3529590977769459     
  0.10410000000000001         -1.4967855468293294     
  0.10440000000000001         -1.5732152116788782     
  0.10470000000000000         -1.5816983655228540     
  0.10500000000000000         -1.5245919843088416     
  0.10530000000000000         -1.4068550969964306     
  0.10560000000000000         -1.2358114220257299     
  0.10590000000000001         -1.0208050713270005     
  0.10620000000000000        -0.77261300078964545     
  0.10650000000000001        -0.50231144834277131     
  0.10679999999999999        -0.22108565356231935     
  0.10710000000000000          5.9689478202020807E-002
  0.10740000000000001         0.32871888223301404     
  0.10770000000000000         0.57543100904202049     
  0.10800000000000000         0.79003197603382347     
  0.10830000000000001         0.96262780366018674     
  0.10859999999999999          1.0831698716329328     
  0.10890000000000000          1.1428650629080259     
  0.10920000000000001          1.1341779132933105     
  0.10950000000000001          1.0507719655511707     
  0.10979999999999999         0.88856346497892780     
  0.11009999999999999         0.64696690199672080     
  0.11040000000000001         0.33014007584842098     
  0.11070000000000001         -5.2713360239290630E-002
  0.11100000000000000        -0.48721662558313561     
  0.11130000000000000        -0.95325070424271630     
  0.11160000000000002         -1.4251745409835053     
  0.11190000000000001         -1.8734183301374898     
  0.11220000000000001         -2.2663509040953187     
  0.11250000000000000         -2.5722335479156300     
  0.11280000000000000         -2.7614767170243084     
  0.11309999999999999         -2.8094004158533039     
  0.11340000000000001         -2.6989312523294871     
  0.11369999999999998         -2.4225613762775566     
  0.11400000000000000         -1.9831845845355200     
  0.11430000000000000         -1.3947874102034419     
  0.11460000000000002        -0.68206928188853766     
  0.11489999999999999         0.12088445256446789     
  0.11520000000000001         0.97284912158383108     
  0.11550000000000001          1.8288577285564998     
  0.11580000000000000          2.6431005588078733     
  0.11609999999999999          3.3717551192760311     
  0.11640000000000002          3.9766576300610552     
  0.11670000000000001          4.4280720917537622     
  0.11700000000000001          4.7061225959435262     
  0.11730000000000000          4.8020253619353923     
  0.11760000000000000          4.7184643467537342     
  0.11789999999999999          4.4688461125666947     
  0.11820000000000001          4.0755712967960562     
  0.11850000000000001          3.5681741106093625     
  0.11880000000000000          2.9810984984378948     
  0.11910000000000000          2.3506744924813319     
  0.11940000000000002          1.7124966909451089     
  0.11970000000000001          1.0992368097195291     
  0.12000000000000001         0.53833707218608495     
  0.12030000000000000          5.0243990805650895E-002
  0.12060000000000000        -0.35239371671381559     
  0.12089999999999999        -0.66512548734423760     
  0.12119999999999999        -0.89199676290257202     
  0.12150000000000001         -1.0446099737032313     
  0.12180000000000001         -1.1406525435446966     
  0.12210000000000000         -1.2029027206899272     
  0.12239999999999999         -1.2569259611962522     
  0.12270000000000002         -1.3289208267461348     
  0.12300000000000001         -1.4439025977137590     
  0.12330000000000001         -1.6236780825744930     
  0.12360000000000000         -1.8851234800854328     
  0.12390000000000000         -2.2382418166926428     
  0.12419999999999999         -2.6852392620773742     
  0.12450000000000001         -3.2203650036789924     
  0.12480000000000001         -3.8290502911242044     
  0.12509999999999999         -4.4881595665792418     
  0.12540000000000001         -5.1669875780161476     
  0.12570000000000003         -5.8286483610034736     
  0.12600000000000000         -6.4317520094813005     
  0.12630000000000002         -6.9319777746287059     
  0.12659999999999999         -7.2845912117805653     
  0.12690000000000001         -7.4475032305493585     
  0.12719999999999998         -7.3833809831232031     
  0.12750000000000000         -7.0622582347046574     
  0.12780000000000002         -6.4642835399780125     
  0.12809999999999999         -5.5810777898934223     
  0.12840000000000001         -4.4175993200896144     
  0.12869999999999998         -2.9929919764425108     
  0.12900000000000000         -1.3401355572799929     
  0.12930000000000003         0.49466017438642140     
  0.12959999999999999          2.4530170878618449     
  0.12990000000000002          4.4678792428686904     
  0.13019999999999998          6.4655344961040555     
  0.13050000000000000          8.3687629785689808     
  0.13080000000000003          10.101355866919164     
  0.13109999999999999          11.592097852296092     
  0.13140000000000002          12.778097334283871     
  0.13169999999999998          13.607072357546713     
  0.13200000000000001          14.041057282424163     
  0.13229999999999997          14.059400457740821     
  0.13260000000000000          13.657771528623812     
  0.13290000000000002          12.848161579570046     
  0.13319999999999999          11.659623084729304     
  0.13350000000000001          10.135069985584025     
  0.13380000000000003          8.3288030091827139     
  0.13410000000000000          6.3036091760377531     
  0.13440000000000002          4.1268935666897164     
  0.13469999999999999          1.8676027718906028     
  0.13500000000000001        -0.40704192283268625     
  0.13529999999999998         -2.6338581597086019     
  0.13560000000000000         -4.7552118039665459     
  0.13590000000000002         -6.7208962978707802     
  0.13619999999999999         -8.4869916064690187     
  0.13650000000000001         -10.015707811663844     
  0.13680000000000003         -11.275983935170132     
  0.13710000000000000         -12.240598558130500     
  0.13740000000000002         -12.886385777262660     
  0.13769999999999999         -13.195475033173523     
  0.13800000000000001         -13.154550926671845     
  0.13829999999999998         -12.756538724639370     
  0.13860000000000000         -12.003142474680203     
  0.13890000000000002         -10.906463071916718     
  0.13919999999999999         -9.4916394985632095     
  0.13950000000000001         -7.7978856465084885     
  0.13979999999999998         -5.8795908241734054     
  0.14010000000000000         -3.8061573948084515     
  0.14040000000000002         -1.6586696769161193     
  0.14069999999999999         0.47269628253420137     
  0.14100000000000001          2.4931176868339051     
  0.14130000000000004          4.3106516732854629     
  0.14160000000000000          5.8408215487787913     
  0.14189999999999997          7.0127542424089029     
  0.14219999999999999          7.7759306547398239     
  0.14250000000000002          8.1025746175792506     
  0.14279999999999998          7.9900252433830445     
  0.14310000000000000          7.4618805109574069     
  0.14339999999999997          6.5662359565971045     
  0.14369999999999999          5.3720320708773528     
  0.14400000000000002          3.9629863787270949     
  0.14429999999999998          2.4331681589472680     
  0.14460000000000001         0.88209599085846691     
  0.14490000000000003        -0.59467832558430977     
  0.14520000000000000         -1.9107834065666864     
  0.14550000000000002         -2.9914354632217766     
  0.14579999999999999         -3.7787107510962983     
  0.14610000000000001         -4.2347880365277035     
  0.14640000000000003         -4.3428233343254874     
  0.14670000000000000         -4.1063210697988648     
  0.14699999999999996         -3.5478488793967671     
  0.14729999999999999         -2.7087700168659694     
  0.14760000000000001         -1.6457432492198194     
  0.14789999999999998        -0.42620357925981267     
  0.14820000000000000         0.87406629468367036     